LAMMPS data file: confArH11.data

28417  atoms
3 atom types

0.0000000000000000e+00 1.0045000000000000e+02 xlo xhi
0.0000000000000000e+00 1.5790400000000000e+02 ylo yhi
0.0000000000000000e+00 1.3141999999999999e+02 zlo zhi

Masses

1 39.948
2 15.9994
3 28.085

Pair Coeffs # lj/cut

1 0.2381 3.405
2 0.17805 2.806
3 0 0

Atoms # atomic

1 2 10.0691 1.37969 9.22306
2 2 10.0209 18.3583 3.91894
3 2 20.0659 18.3583 2.65206
4 2 0.024107 1.37969 10.4899
5 2 10.0209 11.2487 3.91894
6 2 10.0691 8.48931 9.22306
7 2 0.024107 8.48931 10.4899
8 2 20.0659 11.2487 2.65206
9 2 7.78488 1.46653 10.5241
10 2 12.3051 18.2715 2.61789
11 2 2.26012 18.2715 3.95311
12 2 17.8299 1.46653 9.18889
13 2 12.3051 11.3355 2.61789
14 2 7.78488 8.40247 10.5241
15 2 17.8299 8.40247 9.18889
16 2 2.26012 11.3355 3.95311
17 2 8.02595 2.69621 8.21506
18 2 12.064 17.0418 4.92694
19 2 2.01905 17.0418 1.64406
20 2 18.071 2.69621 11.4979
21 2 12.064 12.5652 4.92694
22 2 8.02595 7.17279 8.21506
23 2 18.071 7.17279 11.4979
24 2 2.01905 12.5652 1.64406
25 2 7.97975 0.067109 8.31363
26 2 12.1103 19.6709 4.82837
27 2 2.06525 19.6709 1.74263
28 2 18.0247 0.067109 11.3994
29 2 12.1103 9.93611 4.82837
30 2 7.97975 9.80189 8.31363
31 2 18.0247 9.80189 11.3994
32 2 2.06525 9.93611 1.74263
33 2 6.60961 0.759913 12.7767
34 2 13.4804 18.9781 0.365348
35 2 3.43539 18.9781 6.20565
36 2 16.6546 0.759913 6.93635
37 2 13.4804 10.6289 0.365348
38 2 6.60961 9.10909 12.7767
39 2 16.6546 9.10909 6.93635
40 2 3.43539 10.6289 6.20565
41 2 6.62367 18.8597 10.7173
42 2 13.4663 0.878341 2.4247
43 2 3.42133 0.878341 4.1463
44 2 16.6687 18.8597 8.9957
45 2 13.4663 8.99066 2.4247
46 2 6.62367 10.7473 10.7173
47 2 16.6687 10.7473 8.9957
48 2 3.42133 8.99066 4.1463
49 2 5.16514 1.30863 10.6529
50 2 14.9249 18.4294 2.48909
51 2 4.87986 18.4294 4.08191
52 2 15.2101 1.30863 9.0601
53 2 14.9249 11.1776 2.48909
54 2 5.16514 8.56037 10.6529
55 2 15.2101 8.56037 9.0601
56 2 4.87986 11.1776 4.08191
57 2 5.84619 2.55804 1.39305
58 2 14.2438 17.18 11.7489
59 2 4.19881 17.18 7.96405
60 2 15.8912 2.55804 5.17795
61 2 14.2438 12.427 11.7489
62 2 5.84619 7.31096 1.39305
63 2 15.8912 7.31096 5.17795
64 2 4.19881 12.427 7.96405
65 2 4.08631 0.898079 0.361405
66 2 16.0037 18.8399 12.7806
67 2 5.95869 18.8399 6.93241
68 2 14.1313 0.898079 6.2096
69 2 16.0037 10.7671 12.7806
70 2 4.08631 8.97092 0.361405
71 2 14.1313 8.97092 6.2096
72 2 5.95869 10.7671 6.93241
73 2 5.89842 0.019738 2.05541
74 2 14.1916 19.7183 11.0866
75 2 4.14658 19.7183 8.62641
76 2 15.9434 0.019738 4.51559
77 2 14.1916 9.88874 11.0866
78 2 5.89842 9.84926 2.05541
79 2 15.9434 9.84926 4.51559
80 2 4.14658 9.88874 8.62641
81 2 2.15968 2.49686 1.16044
82 2 17.9303 17.2411 11.9816
83 2 7.88532 17.2411 7.73144
84 2 12.2047 2.49686 5.41056
85 2 17.9303 12.3659 11.9816
86 2 2.15968 7.37214 1.16044
87 2 12.2047 7.37214 5.41056
88 2 7.88532 12.3659 7.73144
89 2 1.69961 0.730306 12.41
90 2 18.3904 19.0077 0.732009
91 2 8.34539 19.0077 5.83899
92 2 11.7446 0.730306 7.30301
93 2 18.3904 10.5993 0.732009
94 2 1.69961 9.1387 12.41
95 2 11.7446 9.1387 7.30301
96 2 8.34539 10.5993 5.83899
97 2 2.61371 1.54154 10.0799
98 2 17.4763 18.1965 3.06209
99 2 7.43129 18.1965 3.50891
100 2 12.6587 1.54154 9.63309
101 2 17.4763 11.4105 3.06209
102 2 2.61371 8.32746 10.0799
103 2 12.6587 8.32746 9.63309
104 2 7.43129 11.4105 3.50891
105 2 1.46255 18.9268 10.2928
106 2 18.6274 0.811232 2.84918
107 2 8.58245 0.811232 3.72181
108 2 11.5076 18.9268 9.42019
109 2 18.6274 9.05777 2.84918
110 2 1.46255 10.6802 10.2928
111 2 11.5076 10.6802 9.42019
112 2 8.58245 9.05777 3.72181
113 2 4.42181 2.5916 8.48447
114 2 15.6682 17.1464 4.65752
115 2 5.62319 17.1464 1.91348
116 2 14.4668 2.5916 11.2285
117 2 15.6682 12.4606 4.65752
118 2 4.42181 7.2774 8.48447
119 2 14.4668 7.2774 11.2285
120 2 5.62319 12.4606 1.91348
121 2 9.8662 16.872 9.4215
122 2 10.2238 2.86596 3.7205
123 2 0.178801 2.86596 2.8505
124 2 19.9112 16.872 10.2915
125 2 10.2238 7.00304 3.7205
126 2 9.8662 12.735 9.4215
127 2 19.9112 12.735 10.2915
128 2 0.178801 7.00304 2.8505
129 2 7.39513 16.4043 10.1759
130 2 12.6949 3.33375 2.96615
131 2 2.64987 3.33375 3.60485
132 2 17.4401 16.4043 9.53715
133 2 12.6949 6.53525 2.96615
134 2 7.39513 13.2027 10.1759
135 2 17.4401 13.2027 9.53715
136 2 2.64987 6.53525 3.60485
137 2 8.56437 14.8035 8.45162
138 2 11.5256 4.9345 4.69038
139 2 1.48063 4.9345 1.88062
140 2 18.6094 14.8035 11.2614
141 2 6.46295 16.9964 12.5651
142 2 13.627 2.74161 0.576934
143 2 3.58205 2.74161 5.99407
144 2 16.508 16.9964 7.14793
145 2 13.627 7.12739 0.576934
146 2 6.46295 12.6106 12.5651
147 2 16.508 12.6106 7.14793
148 2 3.58205 7.12739 5.99407
149 2 4.84169 16.9392 10.5005
150 2 15.2483 2.79885 2.64154
151 2 5.20331 2.79885 3.92946
152 2 14.8867 16.9392 9.21254
153 2 15.2483 7.07015 2.64154
154 2 4.84169 12.6678 10.5005
155 2 14.8867 12.6678 9.21254
156 2 5.20331 7.07015 3.92946
157 2 5.91249 14.8035 0.760922
158 2 14.1775 4.9345 12.3811
159 2 4.13251 4.9345 7.33192
160 2 15.9575 14.8035 5.81008
161 2 3.96978 16.4082 0.003943
162 2 16.1202 3.3298 13.1381
163 2 6.07522 3.3298 6.57494
164 2 14.0148 16.4082 6.56706
165 2 16.1202 6.5392 13.1381
166 2 3.96978 13.1988 0.003943
167 2 14.0148 13.1988 6.56706
168 2 6.07522 6.5392 6.57494
169 2 1.90453 14.8035 0.269411
170 2 18.1855 4.9345 12.8726
171 2 8.14047 4.9345 6.84041
172 2 11.9495 14.8035 6.30159
173 2 1.62528 17.1128 12.1892
174 2 18.4647 2.62515 0.952795
175 2 8.41972 2.62515 5.6182
176 2 11.6703 17.1128 7.52379
177 2 18.4647 7.24385 0.952795
178 2 1.62528 12.4942 12.1892
179 2 11.6703 12.4942 7.52379
180 2 8.41972 7.24385 5.6182
181 2 2.36459 16.5207 9.73297
182 2 17.7254 3.21729 3.40903
183 2 7.68041 3.21729 3.16196
184 2 12.4096 16.5207 9.98004
185 2 17.7254 6.65171 3.40903
186 2 2.36459 13.0863 9.73297
187 2 12.4096 13.0863 9.98004
188 2 7.68041 6.65171 3.16196
189 2 4.25104 14.8035 9.08506
190 2 15.839 4.9345 4.05694
191 2 5.79396 4.9345 2.51406
192 2 14.296 14.8035 10.6279
193 2 30.1591 1.37969 9.22306
194 2 30.1109 18.3583 3.91894
195 2 40.1559 18.3583 2.65206
196 2 20.1141 1.37969 10.4899
197 2 30.1109 11.2487 3.91894
198 2 30.1591 8.48931 9.22306
199 2 20.1141 8.48931 10.4899
200 2 40.1559 11.2487 2.65206
201 2 27.8749 1.46653 10.5241
202 2 32.3951 18.2715 2.61789
203 2 22.3501 18.2715 3.95311
204 2 37.9199 1.46653 9.18889
205 2 32.3951 11.3355 2.61789
206 2 27.8749 8.40247 10.5241
207 2 37.9199 8.40247 9.18889
208 2 22.3501 11.3355 3.95311
209 2 28.116 2.69621 8.21506
210 2 32.154 17.0418 4.92694
211 2 22.109 17.0418 1.64406
212 2 38.161 2.69621 11.4979
213 2 32.154 12.5652 4.92694
214 2 28.116 7.17279 8.21506
215 2 38.161 7.17279 11.4979
216 2 22.109 12.5652 1.64406
217 2 28.0697 0.067109 8.31363
218 2 32.2003 19.6709 4.82837
219 2 22.1553 19.6709 1.74263
220 2 38.1147 0.067109 11.3994
221 2 32.2003 9.93611 4.82837
222 2 28.0697 9.80189 8.31363
223 2 38.1147 9.80189 11.3994
224 2 22.1553 9.93611 1.74263
225 2 26.6996 0.759913 12.7767
226 2 33.5704 18.9781 0.365348
227 2 23.5254 18.9781 6.20565
228 2 36.7446 0.759913 6.93635
229 2 33.5704 10.6289 0.365348
230 2 26.6996 9.10909 12.7767
231 2 36.7446 9.10909 6.93635
232 2 23.5254 10.6289 6.20565
233 2 26.7137 18.8597 10.7173
234 2 33.5563 0.878341 2.4247
235 2 23.5113 0.878341 4.1463
236 2 36.7587 18.8597 8.9957
237 2 33.5563 8.99066 2.4247
238 2 26.7137 10.7473 10.7173
239 2 36.7587 10.7473 8.9957
240 2 23.5113 8.99066 4.1463
241 2 25.2551 1.30863 10.6529
242 2 35.0149 18.4294 2.48909
243 2 24.9699 18.4294 4.08191
244 2 35.3001 1.30863 9.0601
245 2 35.0149 11.1776 2.48909
246 2 25.2551 8.56037 10.6529
247 2 35.3001 8.56037 9.0601
248 2 24.9699 11.1776 4.08191
249 2 25.9362 2.55804 1.39305
250 2 34.3338 17.18 11.7489
251 2 24.2888 17.18 7.96405
252 2 35.9812 2.55804 5.17795
253 2 34.3338 12.427 11.7489
254 2 25.9362 7.31096 1.39305
255 2 35.9812 7.31096 5.17795
256 2 24.2888 12.427 7.96405
257 2 24.1763 0.898079 0.361405
258 2 36.0937 18.8399 12.7806
259 2 26.0487 18.8399 6.93241
260 2 34.2213 0.898079 6.2096
261 2 36.0937 10.7671 12.7806
262 2 24.1763 8.97092 0.361405
263 2 34.2213 8.97092 6.2096
264 2 26.0487 10.7671 6.93241
265 2 25.9884 0.019738 2.05541
266 2 34.2816 19.7183 11.0866
267 2 24.2366 19.7183 8.62641
268 2 36.0334 0.019738 4.51559
269 2 34.2816 9.88874 11.0866
270 2 25.9884 9.84926 2.05541
271 2 36.0334 9.84926 4.51559
272 2 24.2366 9.88874 8.62641
273 2 22.2497 2.49686 1.16044
274 2 38.0203 17.2411 11.9816
275 2 27.9753 17.2411 7.73144
276 2 32.2947 2.49686 5.41056
277 2 38.0203 12.3659 11.9816
278 2 22.2497 7.37214 1.16044
279 2 32.2947 7.37214 5.41056
280 2 27.9753 12.3659 7.73144
281 2 21.7896 0.730306 12.41
282 2 38.4804 19.0077 0.732009
283 2 28.4354 19.0077 5.83899
284 2 31.8346 0.730306 7.30301
285 2 38.4804 10.5993 0.732009
286 2 21.7896 9.1387 12.41
287 2 31.8346 9.1387 7.30301
288 2 28.4354 10.5993 5.83899
289 2 22.7037 1.54154 10.0799
290 2 37.5663 18.1965 3.06209
291 2 27.5213 18.1965 3.50891
292 2 32.7487 1.54154 9.63309
293 2 37.5663 11.4105 3.06209
294 2 22.7037 8.32746 10.0799
295 2 32.7487 8.32746 9.63309
296 2 27.5213 11.4105 3.50891
297 2 21.5526 18.9268 10.2928
298 2 38.7174 0.811232 2.84918
299 2 28.6724 0.811232 3.72181
300 2 31.5976 18.9268 9.42019
301 2 38.7174 9.05777 2.84918
302 2 21.5526 10.6802 10.2928
303 2 31.5976 10.6802 9.42019
304 2 28.6724 9.05777 3.72181
305 2 24.5118 2.5916 8.48447
306 2 35.7582 17.1464 4.65752
307 2 25.7132 17.1464 1.91348
308 2 34.5568 2.5916 11.2285
309 2 35.7582 12.4606 4.65752
310 2 24.5118 7.2774 8.48447
311 2 34.5568 7.2774 11.2285
312 2 25.7132 12.4606 1.91348
313 2 29.9562 16.872 9.4215
314 2 30.3138 2.86596 3.7205
315 2 20.2688 2.86596 2.8505
316 2 40.0012 16.872 10.2915
317 2 30.3138 7.00304 3.7205
318 2 29.9562 12.735 9.4215
319 2 40.0012 12.735 10.2915
320 2 20.2688 7.00304 2.8505
321 2 27.4851 16.4043 10.1759
322 2 32.7849 3.33375 2.96615
323 2 22.7399 3.33375 3.60485
324 2 37.5301 16.4043 9.53715
325 2 32.7849 6.53525 2.96615
326 2 27.4851 13.2027 10.1759
327 2 37.5301 13.2027 9.53715
328 2 22.7399 6.53525 3.60485
329 2 28.6544 14.8035 8.45162
330 2 31.6156 4.9345 4.69038
331 2 21.5706 4.9345 1.88062
332 2 38.6994 14.8035 11.2614
333 2 26.553 16.9964 12.5651
334 2 33.717 2.74161 0.576934
335 2 23.672 2.74161 5.99407
336 2 36.598 16.9964 7.14793
337 2 33.717 7.12739 0.576934
338 2 26.553 12.6106 12.5651
339 2 36.598 12.6106 7.14793
340 2 23.672 7.12739 5.99407
341 2 24.9317 16.9392 10.5005
342 2 35.3383 2.79885 2.64154
343 2 25.2933 2.79885 3.92946
344 2 34.9767 16.9392 9.21254
345 2 35.3383 7.07015 2.64154
346 2 24.9317 12.6678 10.5005
347 2 34.9767 12.6678 9.21254
348 2 25.2933 7.07015 3.92946
349 2 26.0025 14.8035 0.760922
350 2 34.2675 4.9345 12.3811
351 2 24.2225 4.9345 7.33192
352 2 36.0475 14.8035 5.81008
353 2 24.0598 16.4082 0.003943
354 2 36.2102 3.3298 13.1381
355 2 26.1652 3.3298 6.57494
356 2 34.1048 16.4082 6.56706
357 2 36.2102 6.5392 13.1381
358 2 24.0598 13.1988 0.003943
359 2 34.1048 13.1988 6.56706
360 2 26.1652 6.5392 6.57494
361 2 21.9945 14.8035 0.269411
362 2 38.2755 4.9345 12.8726
363 2 28.2305 4.9345 6.84041
364 2 32.0395 14.8035 6.30159
365 2 21.7153 17.1128 12.1892
366 2 38.5547 2.62515 0.952795
367 2 28.5097 2.62515 5.6182
368 2 31.7603 17.1128 7.52379
369 2 38.5547 7.24385 0.952795
370 2 21.7153 12.4942 12.1892
371 2 31.7603 12.4942 7.52379
372 2 28.5097 7.24385 5.6182
373 2 22.4546 16.5207 9.73297
374 2 37.8154 3.21729 3.40903
375 2 27.7704 3.21729 3.16196
376 2 32.4996 16.5207 9.98004
377 2 37.8154 6.65171 3.40903
378 2 22.4546 13.0863 9.73297
379 2 32.4996 13.0863 9.98004
380 2 27.7704 6.65171 3.16196
381 2 24.341 14.8035 9.08506
382 2 35.929 4.9345 4.05694
383 2 25.884 4.9345 2.51406
384 2 34.386 14.8035 10.6279
385 2 50.2491 1.37969 9.22306
386 2 50.2009 18.3583 3.91894
387 2 60.2459 18.3583 2.65206
388 2 40.2041 1.37969 10.4899
389 2 50.2009 11.2487 3.91894
390 2 50.2491 8.48931 9.22306
391 2 40.2041 8.48931 10.4899
392 2 60.2459 11.2487 2.65206
393 2 47.9649 1.46653 10.5241
394 2 52.4851 18.2715 2.61789
395 2 42.4401 18.2715 3.95311
396 2 58.0099 1.46653 9.18889
397 2 52.4851 11.3355 2.61789
398 2 47.9649 8.40247 10.5241
399 2 58.0099 8.40247 9.18889
400 2 42.4401 11.3355 3.95311
401 2 48.206 2.69621 8.21506
402 2 52.244 17.0418 4.92694
403 2 42.199 17.0418 1.64406
404 2 58.251 2.69621 11.4979
405 2 52.244 12.5652 4.92694
406 2 48.206 7.17279 8.21506
407 2 58.251 7.17279 11.4979
408 2 42.199 12.5652 1.64406
409 2 48.1597 0.067109 8.31363
410 2 52.2903 19.6709 4.82837
411 2 42.2453 19.6709 1.74263
412 2 58.2047 0.067109 11.3994
413 2 52.2903 9.93611 4.82837
414 2 48.1597 9.80189 8.31363
415 2 58.2047 9.80189 11.3994
416 2 42.2453 9.93611 1.74263
417 2 46.7896 0.759913 12.7767
418 2 53.6604 18.9781 0.365348
419 2 43.6154 18.9781 6.20565
420 2 56.8346 0.759913 6.93635
421 2 53.6604 10.6289 0.365348
422 2 46.7896 9.10909 12.7767
423 2 56.8346 9.10909 6.93635
424 2 43.6154 10.6289 6.20565
425 2 46.8037 18.8597 10.7173
426 2 53.6463 0.878341 2.4247
427 2 43.6013 0.878341 4.1463
428 2 56.8487 18.8597 8.9957
429 2 53.6463 8.99066 2.4247
430 2 46.8037 10.7473 10.7173
431 2 56.8487 10.7473 8.9957
432 2 43.6013 8.99066 4.1463
433 2 45.3451 1.30863 10.6529
434 2 55.1049 18.4294 2.48909
435 2 45.0599 18.4294 4.08191
436 2 55.3901 1.30863 9.0601
437 2 55.1049 11.1776 2.48909
438 2 45.3451 8.56037 10.6529
439 2 55.3901 8.56037 9.0601
440 2 45.0599 11.1776 4.08191
441 2 46.0262 2.55804 1.39305
442 2 54.4238 17.18 11.7489
443 2 44.3788 17.18 7.96405
444 2 56.0712 2.55804 5.17795
445 2 54.4238 12.427 11.7489
446 2 46.0262 7.31096 1.39305
447 2 56.0712 7.31096 5.17795
448 2 44.3788 12.427 7.96405
449 2 44.2663 0.898079 0.361405
450 2 56.1837 18.8399 12.7806
451 2 46.1387 18.8399 6.93241
452 2 54.3113 0.898079 6.2096
453 2 56.1837 10.7671 12.7806
454 2 44.2663 8.97092 0.361405
455 2 54.3113 8.97092 6.2096
456 2 46.1387 10.7671 6.93241
457 2 46.0784 0.019738 2.05541
458 2 54.3716 19.7183 11.0866
459 2 44.3266 19.7183 8.62641
460 2 56.1234 0.019738 4.51559
461 2 54.3716 9.88874 11.0866
462 2 46.0784 9.84926 2.05541
463 2 56.1234 9.84926 4.51559
464 2 44.3266 9.88874 8.62641
465 2 42.3397 2.49686 1.16044
466 2 58.1103 17.2411 11.9816
467 2 48.0653 17.2411 7.73144
468 2 52.3847 2.49686 5.41056
469 2 58.1103 12.3659 11.9816
470 2 42.3397 7.37214 1.16044
471 2 52.3847 7.37214 5.41056
472 2 48.0653 12.3659 7.73144
473 2 41.8796 0.730306 12.41
474 2 58.5704 19.0077 0.732009
475 2 48.5254 19.0077 5.83899
476 2 51.9246 0.730306 7.30301
477 2 58.5704 10.5993 0.732009
478 2 41.8796 9.1387 12.41
479 2 51.9246 9.1387 7.30301
480 2 48.5254 10.5993 5.83899
481 2 42.7937 1.54154 10.0799
482 2 57.6563 18.1965 3.06209
483 2 47.6113 18.1965 3.50891
484 2 52.8387 1.54154 9.63309
485 2 57.6563 11.4105 3.06209
486 2 42.7937 8.32746 10.0799
487 2 52.8387 8.32746 9.63309
488 2 47.6113 11.4105 3.50891
489 2 41.6426 18.9268 10.2928
490 2 58.8074 0.811232 2.84918
491 2 48.7624 0.811232 3.72181
492 2 51.6876 18.9268 9.42019
493 2 58.8074 9.05777 2.84918
494 2 41.6426 10.6802 10.2928
495 2 51.6876 10.6802 9.42019
496 2 48.7624 9.05777 3.72181
497 2 44.6018 2.5916 8.48447
498 2 55.8482 17.1464 4.65752
499 2 45.8032 17.1464 1.91348
500 2 54.6468 2.5916 11.2285
501 2 55.8482 12.4606 4.65752
502 2 44.6018 7.2774 8.48447
503 2 54.6468 7.2774 11.2285
504 2 45.8032 12.4606 1.91348
505 2 50.0462 16.872 9.4215
506 2 50.4038 2.86596 3.7205
507 2 40.3588 2.86596 2.8505
508 2 60.0912 16.872 10.2915
509 2 50.4038 7.00304 3.7205
510 2 50.0462 12.735 9.4215
511 2 60.0912 12.735 10.2915
512 2 40.3588 7.00304 2.8505
513 2 47.5751 16.4043 10.1759
514 2 52.8749 3.33375 2.96615
515 2 42.8299 3.33375 3.60485
516 2 57.6201 16.4043 9.53715
517 2 52.8749 6.53525 2.96615
518 2 47.5751 13.2027 10.1759
519 2 57.6201 13.2027 9.53715
520 2 42.8299 6.53525 3.60485
521 2 48.7444 14.8035 8.45162
522 2 51.7056 4.9345 4.69038
523 2 41.6606 4.9345 1.88062
524 2 58.7894 14.8035 11.2614
525 2 46.643 16.9964 12.5651
526 2 53.807 2.74161 0.576934
527 2 43.762 2.74161 5.99407
528 2 56.688 16.9964 7.14793
529 2 53.807 7.12739 0.576934
530 2 46.643 12.6106 12.5651
531 2 56.688 12.6106 7.14793
532 2 43.762 7.12739 5.99407
533 2 45.0217 16.9392 10.5005
534 2 55.4283 2.79885 2.64154
535 2 45.3833 2.79885 3.92946
536 2 55.0667 16.9392 9.21254
537 2 55.4283 7.07015 2.64154
538 2 45.0217 12.6678 10.5005
539 2 55.0667 12.6678 9.21254
540 2 45.3833 7.07015 3.92946
541 2 46.0925 14.8035 0.760922
542 2 54.3575 4.9345 12.3811
543 2 44.3125 4.9345 7.33192
544 2 56.1375 14.8035 5.81008
545 2 44.1498 16.4082 0.003943
546 2 56.3002 3.3298 13.1381
547 2 46.2552 3.3298 6.57494
548 2 54.1948 16.4082 6.56706
549 2 56.3002 6.5392 13.1381
550 2 44.1498 13.1988 0.003943
551 2 54.1948 13.1988 6.56706
552 2 46.2552 6.5392 6.57494
553 2 42.0845 14.8035 0.269411
554 2 58.3655 4.9345 12.8726
555 2 48.3205 4.9345 6.84041
556 2 52.1295 14.8035 6.30159
557 2 41.8053 17.1128 12.1892
558 2 58.6447 2.62515 0.952795
559 2 48.5997 2.62515 5.6182
560 2 51.8503 17.1128 7.52379
561 2 58.6447 7.24385 0.952795
562 2 41.8053 12.4942 12.1892
563 2 51.8503 12.4942 7.52379
564 2 48.5997 7.24385 5.6182
565 2 42.5446 16.5207 9.73297
566 2 57.9054 3.21729 3.40903
567 2 47.8604 3.21729 3.16196
568 2 52.5896 16.5207 9.98004
569 2 57.9054 6.65171 3.40903
570 2 42.5446 13.0863 9.73297
571 2 52.5896 13.0863 9.98004
572 2 47.8604 6.65171 3.16196
573 2 44.431 14.8035 9.08506
574 2 56.019 4.9345 4.05694
575 2 45.974 4.9345 2.51406
576 2 54.476 14.8035 10.6279
577 2 70.3391 1.37969 9.22306
578 2 70.2909 18.3583 3.91894
579 2 80.3359 18.3583 2.65206
580 2 60.2941 1.37969 10.4899
581 2 70.2909 11.2487 3.91894
582 2 70.3391 8.48931 9.22306
583 2 60.2941 8.48931 10.4899
584 2 80.3359 11.2487 2.65206
585 2 68.0549 1.46653 10.5241
586 2 72.5751 18.2715 2.61789
587 2 62.5301 18.2715 3.95311
588 2 78.0999 1.46653 9.18889
589 2 72.5751 11.3355 2.61789
590 2 68.0549 8.40247 10.5241
591 2 78.0999 8.40247 9.18889
592 2 62.5301 11.3355 3.95311
593 2 68.296 2.69621 8.21506
594 2 72.334 17.0418 4.92694
595 2 62.289 17.0418 1.64406
596 2 78.341 2.69621 11.4979
597 2 72.334 12.5652 4.92694
598 2 68.296 7.17279 8.21506
599 2 78.341 7.17279 11.4979
600 2 62.289 12.5652 1.64406
601 2 68.2497 0.067109 8.31363
602 2 72.3803 19.6709 4.82837
603 2 62.3353 19.6709 1.74263
604 2 78.2947 0.067109 11.3994
605 2 72.3803 9.93611 4.82837
606 2 68.2497 9.80189 8.31363
607 2 78.2947 9.80189 11.3994
608 2 62.3353 9.93611 1.74263
609 2 66.8796 0.759913 12.7767
610 2 73.7504 18.9781 0.365348
611 2 63.7054 18.9781 6.20565
612 2 76.9246 0.759913 6.93635
613 2 73.7504 10.6289 0.365348
614 2 66.8796 9.10909 12.7767
615 2 76.9246 9.10909 6.93635
616 2 63.7054 10.6289 6.20565
617 2 66.8937 18.8597 10.7173
618 2 73.7363 0.878341 2.4247
619 2 63.6913 0.878341 4.1463
620 2 76.9387 18.8597 8.9957
621 2 73.7363 8.99066 2.4247
622 2 66.8937 10.7473 10.7173
623 2 76.9387 10.7473 8.9957
624 2 63.6913 8.99066 4.1463
625 2 65.4351 1.30863 10.6529
626 2 75.1949 18.4294 2.48909
627 2 65.1499 18.4294 4.08191
628 2 75.4801 1.30863 9.0601
629 2 75.1949 11.1776 2.48909
630 2 65.4351 8.56037 10.6529
631 2 75.4801 8.56037 9.0601
632 2 65.1499 11.1776 4.08191
633 2 66.1162 2.55804 1.39305
634 2 74.5138 17.18 11.7489
635 2 64.4688 17.18 7.96405
636 2 76.1612 2.55804 5.17795
637 2 74.5138 12.427 11.7489
638 2 66.1162 7.31096 1.39305
639 2 76.1612 7.31096 5.17795
640 2 64.4688 12.427 7.96405
641 2 64.3563 0.898079 0.361405
642 2 76.2737 18.8399 12.7806
643 2 66.2287 18.8399 6.93241
644 2 74.4013 0.898079 6.2096
645 2 76.2737 10.7671 12.7806
646 2 64.3563 8.97092 0.361405
647 2 74.4013 8.97092 6.2096
648 2 66.2287 10.7671 6.93241
649 2 66.1684 0.019738 2.05541
650 2 74.4616 19.7183 11.0866
651 2 64.4166 19.7183 8.62641
652 2 76.2134 0.019738 4.51559
653 2 74.4616 9.88874 11.0866
654 2 66.1684 9.84926 2.05541
655 2 76.2134 9.84926 4.51559
656 2 64.4166 9.88874 8.62641
657 2 62.4297 2.49686 1.16044
658 2 78.2003 17.2411 11.9816
659 2 68.1553 17.2411 7.73144
660 2 72.4747 2.49686 5.41056
661 2 78.2003 12.3659 11.9816
662 2 62.4297 7.37214 1.16044
663 2 72.4747 7.37214 5.41056
664 2 68.1553 12.3659 7.73144
665 2 61.9696 0.730306 12.41
666 2 78.6604 19.0077 0.732009
667 2 68.6154 19.0077 5.83899
668 2 72.0146 0.730306 7.30301
669 2 78.6604 10.5993 0.732009
670 2 61.9696 9.1387 12.41
671 2 72.0146 9.1387 7.30301
672 2 68.6154 10.5993 5.83899
673 2 62.8837 1.54154 10.0799
674 2 77.7463 18.1965 3.06209
675 2 67.7013 18.1965 3.50891
676 2 72.9287 1.54154 9.63309
677 2 77.7463 11.4105 3.06209
678 2 62.8837 8.32746 10.0799
679 2 72.9287 8.32746 9.63309
680 2 67.7013 11.4105 3.50891
681 2 61.7326 18.9268 10.2928
682 2 78.8974 0.811232 2.84918
683 2 68.8524 0.811232 3.72181
684 2 71.7776 18.9268 9.42019
685 2 78.8974 9.05777 2.84918
686 2 61.7326 10.6802 10.2928
687 2 71.7776 10.6802 9.42019
688 2 68.8524 9.05777 3.72181
689 2 64.6918 2.5916 8.48447
690 2 75.9382 17.1464 4.65752
691 2 65.8932 17.1464 1.91348
692 2 74.7368 2.5916 11.2285
693 2 75.9382 12.4606 4.65752
694 2 64.6918 7.2774 8.48447
695 2 74.7368 7.2774 11.2285
696 2 65.8932 12.4606 1.91348
697 2 70.1362 16.872 9.4215
698 2 70.4938 2.86596 3.7205
699 2 60.4488 2.86596 2.8505
700 2 80.1812 16.872 10.2915
701 2 70.4938 7.00304 3.7205
702 2 70.1362 12.735 9.4215
703 2 80.1812 12.735 10.2915
704 2 60.4488 7.00304 2.8505
705 2 67.6651 16.4043 10.1759
706 2 72.9649 3.33375 2.96615
707 2 62.9199 3.33375 3.60485
708 2 77.7101 16.4043 9.53715
709 2 72.9649 6.53525 2.96615
710 2 67.6651 13.2027 10.1759
711 2 77.7101 13.2027 9.53715
712 2 62.9199 6.53525 3.60485
713 2 68.8344 14.8035 8.45162
714 2 71.7956 4.9345 4.69038
715 2 61.7506 4.9345 1.88062
716 2 78.8794 14.8035 11.2614
717 2 66.733 16.9964 12.5651
718 2 73.897 2.74161 0.576934
719 2 63.852 2.74161 5.99407
720 2 76.778 16.9964 7.14793
721 2 73.897 7.12739 0.576934
722 2 66.733 12.6106 12.5651
723 2 76.778 12.6106 7.14793
724 2 63.852 7.12739 5.99407
725 2 65.1117 16.9392 10.5005
726 2 75.5183 2.79885 2.64154
727 2 65.4733 2.79885 3.92946
728 2 75.1567 16.9392 9.21254
729 2 75.5183 7.07015 2.64154
730 2 65.1117 12.6678 10.5005
731 2 75.1567 12.6678 9.21254
732 2 65.4733 7.07015 3.92946
733 2 66.1825 14.8035 0.760922
734 2 74.4475 4.9345 12.3811
735 2 64.4025 4.9345 7.33192
736 2 76.2275 14.8035 5.81008
737 2 64.2398 16.4082 0.003943
738 2 76.3902 3.3298 13.1381
739 2 66.3452 3.3298 6.57494
740 2 74.2848 16.4082 6.56706
741 2 76.3902 6.5392 13.1381
742 2 64.2398 13.1988 0.003943
743 2 74.2848 13.1988 6.56706
744 2 66.3452 6.5392 6.57494
745 2 62.1745 14.8035 0.269411
746 2 78.4555 4.9345 12.8726
747 2 68.4105 4.9345 6.84041
748 2 72.2195 14.8035 6.30159
749 2 61.8953 17.1128 12.1892
750 2 78.7347 2.62515 0.952795
751 2 68.6897 2.62515 5.6182
752 2 71.9403 17.1128 7.52379
753 2 78.7347 7.24385 0.952795
754 2 61.8953 12.4942 12.1892
755 2 71.9403 12.4942 7.52379
756 2 68.6897 7.24385 5.6182
757 2 62.6346 16.5207 9.73297
758 2 77.9954 3.21729 3.40903
759 2 67.9504 3.21729 3.16196
760 2 72.6796 16.5207 9.98004
761 2 77.9954 6.65171 3.40903
762 2 62.6346 13.0863 9.73297
763 2 72.6796 13.0863 9.98004
764 2 67.9504 6.65171 3.16196
765 2 64.521 14.8035 9.08506
766 2 76.109 4.9345 4.05694
767 2 66.064 4.9345 2.51406
768 2 74.566 14.8035 10.6279
769 2 90.4291 1.37969 9.22306
770 2 90.3809 18.3583 3.91894
771 2 100.426 18.3583 2.65206
772 2 80.3841 1.37969 10.4899
773 2 90.3809 11.2487 3.91894
774 2 90.4291 8.48931 9.22306
775 2 80.3841 8.48931 10.4899
776 2 100.426 11.2487 2.65206
777 2 88.1449 1.46653 10.5241
778 2 92.6651 18.2715 2.61789
779 2 82.6201 18.2715 3.95311
780 2 98.1899 1.46653 9.18889
781 2 92.6651 11.3355 2.61789
782 2 88.1449 8.40247 10.5241
783 2 98.1899 8.40247 9.18889
784 2 82.6201 11.3355 3.95311
785 2 88.386 2.69621 8.21506
786 2 92.424 17.0418 4.92694
787 2 82.379 17.0418 1.64406
788 2 98.431 2.69621 11.4979
789 2 92.424 12.5652 4.92694
790 2 88.386 7.17279 8.21506
791 2 98.431 7.17279 11.4979
792 2 82.379 12.5652 1.64406
793 2 88.3397 0.067109 8.31363
794 2 92.4703 19.6709 4.82837
795 2 82.4253 19.6709 1.74263
796 2 98.3847 0.067109 11.3994
797 2 92.4703 9.93611 4.82837
798 2 88.3397 9.80189 8.31363
799 2 98.3847 9.80189 11.3994
800 2 82.4253 9.93611 1.74263
801 2 86.9696 0.759913 12.7767
802 2 93.8404 18.9781 0.365348
803 2 83.7954 18.9781 6.20565
804 2 97.0146 0.759913 6.93635
805 2 93.8404 10.6289 0.365348
806 2 86.9696 9.10909 12.7767
807 2 97.0146 9.10909 6.93635
808 2 83.7954 10.6289 6.20565
809 2 86.9837 18.8597 10.7173
810 2 93.8263 0.878341 2.4247
811 2 83.7813 0.878341 4.1463
812 2 97.0287 18.8597 8.9957
813 2 93.8263 8.99066 2.4247
814 2 86.9837 10.7473 10.7173
815 2 97.0287 10.7473 8.9957
816 2 83.7813 8.99066 4.1463
817 2 85.5251 1.30863 10.6529
818 2 95.2849 18.4294 2.48909
819 2 85.2399 18.4294 4.08191
820 2 95.5701 1.30863 9.0601
821 2 95.2849 11.1776 2.48909
822 2 85.5251 8.56037 10.6529
823 2 95.5701 8.56037 9.0601
824 2 85.2399 11.1776 4.08191
825 2 86.2062 2.55804 1.39305
826 2 94.6038 17.18 11.7489
827 2 84.5588 17.18 7.96405
828 2 96.2512 2.55804 5.17795
829 2 94.6038 12.427 11.7489
830 2 86.2062 7.31096 1.39305
831 2 96.2512 7.31096 5.17795
832 2 84.5588 12.427 7.96405
833 2 84.4463 0.898079 0.361405
834 2 96.3637 18.8399 12.7806
835 2 86.3187 18.8399 6.93241
836 2 94.4913 0.898079 6.2096
837 2 96.3637 10.7671 12.7806
838 2 84.4463 8.97092 0.361405
839 2 94.4913 8.97092 6.2096
840 2 86.3187 10.7671 6.93241
841 2 86.2584 0.019738 2.05541
842 2 94.5516 19.7183 11.0866
843 2 84.5066 19.7183 8.62641
844 2 96.3034 0.019738 4.51559
845 2 94.5516 9.88874 11.0866
846 2 86.2584 9.84926 2.05541
847 2 96.3034 9.84926 4.51559
848 2 84.5066 9.88874 8.62641
849 2 82.5197 2.49686 1.16044
850 2 98.2903 17.2411 11.9816
851 2 88.2453 17.2411 7.73144
852 2 92.5647 2.49686 5.41056
853 2 98.2903 12.3659 11.9816
854 2 82.5197 7.37214 1.16044
855 2 92.5647 7.37214 5.41056
856 2 88.2453 12.3659 7.73144
857 2 82.0596 0.730306 12.41
858 2 98.7504 19.0077 0.732009
859 2 88.7054 19.0077 5.83899
860 2 92.1046 0.730306 7.30301
861 2 98.7504 10.5993 0.732009
862 2 82.0596 9.1387 12.41
863 2 92.1046 9.1387 7.30301
864 2 88.7054 10.5993 5.83899
865 2 82.9737 1.54154 10.0799
866 2 97.8363 18.1965 3.06209
867 2 87.7913 18.1965 3.50891
868 2 93.0187 1.54154 9.63309
869 2 97.8363 11.4105 3.06209
870 2 82.9737 8.32746 10.0799
871 2 93.0187 8.32746 9.63309
872 2 87.7913 11.4105 3.50891
873 2 81.8226 18.9268 10.2928
874 2 98.9874 0.811232 2.84918
875 2 88.9424 0.811232 3.72181
876 2 91.8676 18.9268 9.42019
877 2 98.9874 9.05777 2.84918
878 2 81.8226 10.6802 10.2928
879 2 91.8676 10.6802 9.42019
880 2 88.9424 9.05777 3.72181
881 2 84.7818 2.5916 8.48447
882 2 96.0282 17.1464 4.65752
883 2 85.9832 17.1464 1.91348
884 2 94.8268 2.5916 11.2285
885 2 96.0282 12.4606 4.65752
886 2 84.7818 7.2774 8.48447
887 2 94.8268 7.2774 11.2285
888 2 85.9832 12.4606 1.91348
889 2 90.2262 16.872 9.4215
890 2 90.5838 2.86596 3.7205
891 2 80.5388 2.86596 2.8505
892 2 100.271 16.872 10.2915
893 2 90.5838 7.00304 3.7205
894 2 90.2262 12.735 9.4215
895 2 100.271 12.735 10.2915
896 2 80.5388 7.00304 2.8505
897 2 87.7551 16.4043 10.1759
898 2 93.0549 3.33375 2.96615
899 2 83.0099 3.33375 3.60485
900 2 97.8001 16.4043 9.53715
901 2 93.0549 6.53525 2.96615
902 2 87.7551 13.2027 10.1759
903 2 97.8001 13.2027 9.53715
904 2 83.0099 6.53525 3.60485
905 2 88.9244 14.8035 8.45162
906 2 91.8856 4.9345 4.69038
907 2 81.8406 4.9345 1.88062
908 2 98.9694 14.8035 11.2614
909 2 86.823 16.9964 12.5651
910 2 93.987 2.74161 0.576934
911 2 83.942 2.74161 5.99407
912 2 96.868 16.9964 7.14793
913 2 93.987 7.12739 0.576934
914 2 86.823 12.6106 12.5651
915 2 96.868 12.6106 7.14793
916 2 83.942 7.12739 5.99407
917 2 85.2017 16.9392 10.5005
918 2 95.6083 2.79885 2.64154
919 2 85.5633 2.79885 3.92946
920 2 95.2467 16.9392 9.21254
921 2 95.6083 7.07015 2.64154
922 2 85.2017 12.6678 10.5005
923 2 95.2467 12.6678 9.21254
924 2 85.5633 7.07015 3.92946
925 2 86.2725 14.8035 0.760922
926 2 94.5375 4.9345 12.3811
927 2 84.4925 4.9345 7.33192
928 2 96.3175 14.8035 5.81008
929 2 84.3298 16.4082 0.003943
930 2 96.4802 3.3298 13.1381
931 2 86.4352 3.3298 6.57494
932 2 94.3748 16.4082 6.56706
933 2 96.4802 6.5392 13.1381
934 2 84.3298 13.1988 0.003943
935 2 94.3748 13.1988 6.56706
936 2 86.4352 6.5392 6.57494
937 2 82.2645 14.8035 0.269411
938 2 98.5455 4.9345 12.8726
939 2 88.5005 4.9345 6.84041
940 2 92.3095 14.8035 6.30159
941 2 81.9853 17.1128 12.1892
942 2 98.8247 2.62515 0.952795
943 2 88.7797 2.62515 5.6182
944 2 92.0303 17.1128 7.52379
945 2 98.8247 7.24385 0.952795
946 2 81.9853 12.4942 12.1892
947 2 92.0303 12.4942 7.52379
948 2 88.7797 7.24385 5.6182
949 2 82.7246 16.5207 9.73297
950 2 98.0854 3.21729 3.40903
951 2 88.0404 3.21729 3.16196
952 2 92.7696 16.5207 9.98004
953 2 98.0854 6.65171 3.40903
954 2 82.7246 13.0863 9.73297
955 2 92.7696 13.0863 9.98004
956 2 88.0404 6.65171 3.16196
957 2 84.611 14.8035 9.08506
958 2 96.199 4.9345 4.05694
959 2 86.154 4.9345 2.51406
960 2 94.656 14.8035 10.6279
961 2 10.0691 21.1177 9.22306
962 2 10.0209 38.0963 3.91894
963 2 20.0659 38.0963 2.65206
964 2 0.024107 21.1177 10.4899
965 2 10.0209 30.9867 3.91894
966 2 10.0691 28.2273 9.22306
967 2 0.024107 28.2273 10.4899
968 2 20.0659 30.9867 2.65206
969 2 7.78488 21.2045 10.5241
970 2 12.3051 38.0095 2.61789
971 2 2.26012 38.0095 3.95311
972 2 17.8299 21.2045 9.18889
973 2 12.3051 31.0735 2.61789
974 2 7.78488 28.1405 10.5241
975 2 17.8299 28.1405 9.18889
976 2 2.26012 31.0735 3.95311
977 2 8.02595 22.4342 8.21506
978 2 12.064 36.7798 4.92694
979 2 2.01905 36.7798 1.64406
980 2 18.071 22.4342 11.4979
981 2 12.064 32.3032 4.92694
982 2 8.02595 26.9108 8.21506
983 2 18.071 26.9108 11.4979
984 2 2.01905 32.3032 1.64406
985 2 7.97975 19.8051 8.31363
986 2 12.1103 39.4089 4.82837
987 2 2.06525 39.4089 1.74263
988 2 18.0247 19.8051 11.3994
989 2 12.1103 29.6741 4.82837
990 2 7.97975 29.5399 8.31363
991 2 18.0247 29.5399 11.3994
992 2 2.06525 29.6741 1.74263
993 2 6.60961 20.4979 12.7767
994 2 13.4804 38.7161 0.365348
995 2 3.43539 38.7161 6.20565
996 2 16.6546 20.4979 6.93635
997 2 13.4804 30.3669 0.365348
998 2 6.60961 28.8471 12.7767