# LAMMPS data file written by OVITO

215 atoms
2 atom types

0.0 13.6750002 xlo xhi
0.0 23.6858006 ylo yhi
0.0 14.7670002 zlo zhi

Atoms

1   2 11.6647721 1.160604 1.8119101
2   2 6.8374992 9.5216885 1.8119101
3   2 11.664773 14.6299238 3.1104231
4   2 2.010226 14.6299238 3.1104231
5   2 13.6749993 13.4693203 6.7342439
6   2 11.664774 9.0558691 11.6565771
7   2 4.8272739 18.5775566 8.0327568
8   2 11.664774 6.7346611 8.0327568
9   2 6.8375011 17.4169521 11.6565771
10  2 4.8272739 10.6822911 12.9550896
11  2 4.827272 13.0035009 1.8119101
12  2 11.664773 16.9511338 6.7342439
13  2 2.010227 16.9511338 6.7342439
14  2 4.8272739 20.8987656 11.6565771
15  2 13.6749993 10.2164745 8.0327568
16  2 8.8477268 18.5775566 8.0327568
17  2 13.6749993 2.3212099 12.9550896
18  2 8.8477268 10.6822911 12.9550896
19  2 13.6749983 21.364584 1.8119101
20  2 11.6647749 22.5251885 12.9550896
21  2 2.010226 22.5251885 12.9550896
22  2 8.8477268 13.0035028 1.8119101
23  2 8.847726 20.8987676 11.6565771
24  2 6.8375001 22.059372 8.0327568
25  2 6.837502 14.1641073 12.9550896
26  2 2.010226 1.160606 1.8119101
27  2 4.827272 5.1082368 6.7342439
28  2 8.8477278 2.7870281 3.1104231
29  2 6.8375049 1.6264171 6.7342439
30  2 6.8375001 6.2688432 3.1104231
31  2 8.847726 5.1082392 6.7342439
32  2 4.827261 2.78703 3.1104231
33  2 2.0102279 6.7346611 8.0327568
34  2 6.0e-06 5.5740452 11.6565771
35  2 2.010227 9.055871 11.6565771
36  2 11.2367458 3.672086 2.4611659
37  2 8.7984925 7.8952642 2.4611659
38  2 9.2757521 15.5149822 2.4611671
39  2 4.3992481 15.5149822 2.4611671
40  2 11.2367458 11.5673514 12.3058338
41  2 8.7984934 0.0 7.3835011
42  2 2.438252 19.462616 7.3835011
43  2 11.2367458 4.2231789 7.3835011
44  2 8.7984934 15.7905283 12.3058338
45  2 2.438253 11.5673495 12.3058338
46  2 11.2367468 19.462616 7.3835001
47  2 4.3992462 23.4102478 12.3058338
48  2 1.9609932 19.7381592 2.4611659
49  2 9.275753 23.4102478 12.3058338
50  2 11.2367458 12.1184444 2.4611659
51  2 11.7140084 19.7381649 2.4611671
52  2 11.2367468 20.01371 12.3058338
53  2 4.8765082 15.7905302 12.3058338
54  2 2.4382541 20.0137081 12.3058338
55  2 2.438253 12.1184444 2.4611659
56  2 4.3992472 16.0660763 7.3835001
57  2 9.275754 16.0660763 7.3835001
58  2 11.7140103 3.947628 12.3058338
59  2 11.7140074 11.8428984 7.3835011
60  2 9.2757549 8.1708107 12.3058338
61  2 4.3992472 0.275547 2.4611659
62  2 2.4382541 3.672086 2.4611659
63  2 4.3992481 7.6197191 7.3835001
64  2 9.2757549 0.275547 2.4611671
65  2 4.8765068 0.0 7.3835001
66  2 2.438253 4.2231798 7.3835001
67  2 9.2757549 7.6197191 7.3835001
68  2 4.8765082 7.8952662 2.4611671
69  2 1.9609932 11.8428984 7.3835011
70  2 4.3992472 8.1708126 12.3058338
71  2 1.961001 3.947628 12.3058338
72  2 6.8375011 6.7958479 6.864193
73  2 6.8375001 1.099416 2.980474
74  2 4.370872 2.5235241 6.864193
75  2 9.3041287 5.3717408 2.980474
76  2 9.3041277 2.5235241 6.864193
77  2 4.370872 5.3717408 2.980474
78  2 0.0 10.7434817 11.7865277
79  2 2.4666281 9.3193731 7.9028072
80  2 2.4666281 6.4711571 11.7865277
81  2 2.4666281 1.4241081 12.82514
82  2 6.8375011 14.6911135 1.94186
83  2 0.0 18.6387463 6.864193
84  2 9.3041277 21.1622696 7.9028072
85  2 6.8375001 22.5863781 11.7865277
86  2 9.3041268 13.267005 12.82514
87  2 11.2083721 22.2616863 1.94186
88  2 13.6750002 20.8375778 12.82514
89  2 4.370872 10.4187889 1.94186
90  2 0.0 12.9423142 2.980474
91  2 11.2083731 14.3664217 6.864193
92  2 2.4666281 14.3664217 6.864193
93 2 4.370872 18.3140545 11.7865277
94 2 11.2083721 9.3193731 7.9028072
95 2 11.2083731 6.4711571 11.7865277
96 2 6.8375001 16.889946 7.9028072
97 2 11.2083721 1.4241081 12.82514
98 2 6.8375001 8.9946804 12.82514
99 2 13.6750002 2.8482162 1.94186
100 2 9.3041287 10.4187889 1.94186
101 2 11.2083731 17.2146378 2.980474
102 2 2.4666281 17.2146378 2.980474
103 2 4.370872 21.1622696 7.9028072
104 2 13.6750002 5.047049 7.9028072
105 2 9.3041277 18.3140545 11.7865277
106 2 4.370872 13.267005 12.82514
107 2 2.4666281 22.2616863 1.94186
108 2 5.0754771 6.9995462 4.9223342
109 2 8.5995236 0.895719 4.9223342
110 2 5.0754771 0.895719 4.9223342
111 2 8.5995236 6.9995462 4.9223342
112 2 10.3615475 3.947633 4.9223342
113 2 3.3134539 3.947633 4.9223342
114 2 1.762023 4.843351 9.8446674
115 2 1.762022 10.9471788 9.8446674
116 2 3.524046 7.8952652 9.8446674
117 2 1.762023 3.051913 14.7670002
118 2 8.5995236 22.7900753 9.8446674
119 2 8.5995226 14.8948098 14.7670002
120 2 11.9129772 20.6338806 14.7670002
121 2 1.762023 12.738616 4.9223342
122 2 11.9129764 12.738616 4.9223342
123 2 5.0754781 16.6862488 9.8446674
124 2 10.1509543 7.8952652 9.8446674
125 2 5.0754771 8.7909832 14.7670002
126 2 10.1509533 15.7905302 4.9223342
127 2 3.5240469 15.7905302 4.9223342
128 2 11.9129772 10.9471788 9.8446674
129 2 3.3134539 19.7381649 9.8446674
130 2 11.9129772 4.843351 9.8446674
131 2 8.5995236 16.6862488 9.8446674
132 2 11.9129772 3.051913 14.7670002
133 2 8.5995236 8.7909832 14.7670002
134 2 3.313453 11.8428974 14.7670002
135 2 11.9129772 18.8424436 4.9223342
136 2 1.762023 18.8424436 4.9223342
137 2 5.0754771 22.7900753 9.8446674
138 2 10.3615475 19.7381649 9.8446674
139 2 5.0754781 14.8948098 14.7670002
140 2 10.3615456 11.8428974 14.7670002
141 2 1.762023 20.6338806 14.7670002
142 2 10.1509543 23.6857968 14.7670002
143 2 3.524045 23.6857968 14.7670002
144 1 12.1228857 2.681231 1.552011
145 1 8.3834572 9.1581106 1.552011
146 1 10.5769291 15.786974 3.370322
147 1 3.0980721 15.786974 3.370322
148 1 12.1228857 10.5764971 11.396678
149 1 3.739429 19.7346058 8.292656
150 1 12.1228857 5.2140341 8.292656
151 1 8.3834572 17.0533752 11.396678
152 1 3.7394281 11.8393422 13.2149887
153 1 5.2853861 14.5241289 1.552011
154 1 12.1228848 18.4717617 6.4743452
155 1 1.552115 18.4717617 6.4743452
156 1 5.2853861 22.4193936 11.396678
157 1 9.9355726 19.7346058 8.292656
158 1 9.9355718 11.8393422 13.2149887
159 1 1.5459581 21.0010071 1.552011
160 1 10.5769291 23.6822377 13.2149887
161 1 3.0980721 23.6822377 13.2149887
162 1 9.9355736 11.8464528 1.552011
163 1 1.545957 18.4753151 3.370322
164 1 12.1290426 18.4753151 3.370322
165 1 9.9355736 19.7417183 11.396678
166 1 5.2915421 22.4229489 8.292656
167 1 5.2915421 14.5276842 13.2149887
168 1 1.552114 21.0045643 13.2149887
169 1 3.7394281 11.8464528 1.552011
170 1 3.098073 15.7940846 6.4743452
171 1 10.5769291 15.7940846 6.4743452
172 1 8.3896141 17.0569325 8.292656
173 1 12.1290493 5.2104688 11.396678
174 1 3.739429 19.7417183 11.396678
175 1 12.1290417 10.5800514 8.292656
176 1 8.3896141 9.1616659 13.2149887
177 1 12.1290426 2.6847871 13.2149887
178 1 3.0980721 0.003555 1.552011
179 1 1.552115 2.681231 1.552011
180 1 5.2853742 6.6288638 6.4743452
181 1 8.3896151 1.2664011 3.370322
182 1 5.2915459 1.26284 6.4743452
183 1 8.3834572 6.6324201 3.370322
184 1 9.9355726 3.9511882 6.4743452
185 1 3.7394209 3.9440712 3.370322
186 1 9.9355746 3.9440712 3.370322
187 1 3.7394281 3.9511882 6.4743452
188 1 5.2853742 1.2664011 3.370322
189 1 8.389616 6.6288638 6.4743452
190 1 5.291543 6.6324201 3.370322
191 1 8.3834486 1.26284 6.4743452
192 1 1.552115 5.2140341 8.292656
193 1 1.545957 10.5800514 8.292656
194 1 3.098073 7.89882 11.396678
195 1 3.098078 7.8916988 8.292656
196 1 1.552115 10.5764971 11.396678
197 1 1.545955 5.2104688 11.396678
198 1 1.545957 2.6847871 13.2149887
199 1 8.389616 14.5241289 1.552011
200 1 8.3834572 22.4229489 8.292656
201 1 8.389617 22.4193936 11.396678
202 1 8.3834562 14.5276842 13.2149887
203 1 12.1290445 21.0010071 1.552011
204 1 12.1228848 21.0045643 13.2149887
205 1 5.291543 9.1581106 1.552011
206 1 10.5769282 0.003555 1.552011
207 1 1.552115 13.1092987 3.370322
208 1 12.1290436 13.1057434 6.4743452
209 1 12.1228867 13.1092987 3.370322
210 1 1.5459451 13.1057434 6.4743452
211 1 5.291543 17.0533752 11.396678
212 1 10.5769348 7.8916988 8.292656
213 1 10.5769291 7.89882 11.396678
214 1 5.2853851 17.0569325 8.292656
215 1 5.2853861 9.1616659 13.2149887
